                         Program Version 5.0.4 -  RELEASE  -
|  1> !rHF ccsd(t) aug-cc-pvtz  tightscf
|  2> !Freq
|  3>
|  4> %maxcore 3277
|  5> %pal # job parallelization settings
|  6> nprocs 20
|  7> end
|  8> %scf # recommended SCF settings
|  9> MaxIter 500
| 10> end
| 11>
| 12>
| 13> * xyz 0 1
| 14> N       1.67752400   -0.09849500    0.08849500
| 15> O       0.71994800    0.48047800   -0.07157800
| 16> O      -0.88169600   -0.54832600    0.07744200
| 17> H      -1.51577600    0.16634200   -0.09436200
| 18> *
| 19>
| 20>                          ****END OF INPUT****

CARTESIAN COORDINATES (ANGSTROEM)
---------------------------------
  N      1.677524   -0.098495    0.088495
  O      0.719948    0.480478   -0.071578
  O     -0.881696   -0.548326    0.077442
  H     -1.515776    0.166342   -0.094362

 Total Charge           Charge          ....    0
 Multiplicity           Mult            ....    1
 Number of Electrons    NEL             ....   24
 Basis Dimension        Dim             ....  161

ORBITAL ENERGIES
----------------

  NO   OCC          E(Eh)            E(eV)
   0   2.0000     -20.863224      -567.7172
   1   2.0000     -20.525336      -558.5228
   2   2.0000     -15.816969      -430.4016
   3   2.0000      -1.721937       -46.8563
   4   2.0000      -1.239268       -33.7222
   5   2.0000      -1.014926       -27.6175
   6   2.0000      -0.780512       -21.2388
   7   2.0000      -0.770437       -20.9646
   8   2.0000      -0.767177       -20.8760
   9   2.0000      -0.570515       -15.5245
  10   2.0000      -0.444211       -12.0876
  11   2.0000      -0.359793        -9.7905
  12   0.0000       0.011734         0.3193
  13   0.0000       0.021734         0.5914
  14   0.0000       0.041971         1.1421
  15   0.0000       0.088955         2.4206
  16   0.0000       0.095791         2.6066

E(0)                                       ...   -204.596642989
E(0)                                       ...   -204.596642989
E(CORR)                                    ...     -0.734308629
E(TOT)                                     ...   -205.330951618
E(CCSD(T))                                 ...   -205.381295518

MULLIKEN ATOMIC CHARGES
-----------------------
   0 N :    0.107532
   1 O :    0.136104
   2 O :   -0.465839
   3 H :    0.222203
Sum of atomic charges:    0.0000000

LOEWDIN ATOMIC CHARGES
----------------------
   0 N :    0.082994
   1 O :    0.138660
   2 O :    0.497174
   3 H :   -0.718827

  Mayer bond orders larger than 0.100000
B(  0-N ,  1-O ) :   1.7720 B(  0-N ,  2-O ) :   0.3055 B(  1-O ,  2-O ) :   0.3771
B(  2-O ,  3-H ) :   0.9205

FINAL SINGLE POINT ENERGY      -205.381295518158

DIPOLE MOMENT
-------------
                                X             Y             Z
Electronic contribution:      2.26126       0.59610      -0.03289
Nuclear contribution   :     -1.81645       0.20207      -0.11359
                        -----------------------------------------
Total Dipole Moment    :      0.44481       0.79817      -0.14647
                        -----------------------------------------
Magnitude (a.u.)       :      0.92541
Magnitude (Debye)      :      2.35221

VIBRATIONAL FREQUENCIES
-----------------------

Scaling factor for frequencies =  1.000000000 (already applied!)

   0:         0.00 cm**-1
   1:         0.00 cm**-1
   2:         0.00 cm**-1
   3:         0.00 cm**-1
   4:         0.00 cm**-1
   5:         0.00 cm**-1
   6:       228.25 cm**-1
   7:       294.49 cm**-1
   8:       422.93 cm**-1
   9:       823.31 cm**-1
  10:      1872.83 cm**-1
  11:      3739.40 cm**-1

IR SPECTRUM
-----------

 Mode   freq       eps      Int      T**2         TX        TY        TZ
       cm**-1   L/(mol*cm) km/mol    a.u.
----------------------------------------------------------------------------
  6:    228.25   0.015750   79.59  0.021533  (-0.005691  0.029388  0.143656)
  7:    294.49   0.000677    3.42  0.000717  (-0.026550 -0.003420 -0.000602)
  8:    422.93   0.000137    0.69  0.000101  (-0.003624 -0.009350  0.000767)
  9:    823.31   0.005426   27.42  0.002057  (-0.038608 -0.023574  0.003227)
 10:   1872.83   0.040938  206.88  0.006821  ( 0.075063  0.034208 -0.004081)
 11:   3739.40   0.006432   32.51  0.000537  ( 0.023083  0.001922  0.000528)

--------------------------
THERMOCHEMISTRY AT 298.15K
--------------------------

Temperature         ... 298.15 K
Pressure            ... 1.00 atm
Total Mass          ... 47.01 AMU

Throughout the following assumptions are being made:
  (1) The electronic state is orbitally nondegenerate
  (2) There are no thermally accessible electronically excited states
  (3) Hindered rotations indicated by low frequency modes are not
      treated as such but are treated as vibrations and this may
      cause some error
  (4) All equations used are the standard statistical mechanics
      equations for an ideal gas
  (5) All vibrations are strictly harmonic

freq.     228.25  E(vib)   ...       0.32
freq.     294.49  E(vib)   ...       0.27
freq.     422.93  E(vib)   ...       0.18
freq.     823.31  E(vib)   ...       0.05
freq.    1872.83  E(vib)   ...       0.00
freq.    3739.40  E(vib)   ...       0.00

------------
INNER ENERGY
------------

The inner energy is: U= E(el) + E(ZPE) + E(vib) + E(rot) + E(trans)
    E(el)   - is the total energy from the electronic structure calculation
              = E(kin-el) + E(nuc-el) + E(el-el) + E(nuc-nuc)
    E(ZPE)  - the the zero temperature vibrational energy from the frequency calculation
    E(vib)  - the the finite temperature correction to E(ZPE) due to population
              of excited vibrational states
    E(rot)  - is the rotational thermal energy
    E(trans)- is the translational thermal energy

Summary of contributions to the inner energy U:
Electronic energy                ...   -205.38129552 Eh
Zero point energy                ...      0.01681562 Eh      10.55 kcal/mol
Thermal vibrational correction   ...      0.00130560 Eh       0.82 kcal/mol
Thermal rotational correction    ...      0.00141627 Eh       0.89 kcal/mol
Thermal translational correction ...      0.00141627 Eh       0.89 kcal/mol
-----------------------------------------------------------------------
Total thermal energy                   -205.36034175 Eh

Summary of corrections to the electronic energy:
(perhaps to be used in another calculation)
Total thermal correction                  0.00413814 Eh       2.60 kcal/mol
Non-thermal (ZPE) correction              0.01681562 Eh      10.55 kcal/mol
-----------------------------------------------------------------------
Total correction                          0.02095377 Eh      13.15 kcal/mol

--------
ENTHALPY
--------

The enthalpy is H = U + kB*T
                kB is Boltzmann's constant
Total free energy                 ...   -205.36034175 Eh
Thermal Enthalpy correction       ...      0.00094421 Eh       0.59 kcal/mol
-----------------------------------------------------------------------
Total Enthalpy                    ...   -205.35939754 Eh

Note: Only C1 symmetry has been detected, increase convergence thresholds
      if your molecule has a higher symmetry. Symmetry factor of 1.0 is
      used for the rotational entropy correction.

Note: Rotational entropy computed according to Herzberg
Infrared and Raman Spectra, Chapter V,1, Van Nostrand Reinhold, 1945
Point Group:  C1, Symmetry Number:   1
Rotational constants in cm-1:     2.796015     0.294390     0.266346

Vibrational entropy computed according to the QRRHO of S. Grimme
Chem.Eur.J. 2012 18 9955

-------
ENTROPY
-------

The entropy contributions are T*S = T*(S(el)+S(vib)+S(rot)+S(trans))
     S(el)   - electronic entropy
     S(vib)  - vibrational entropy
     S(rot)  - rotational entropy
     S(trans)- translational entropy
The entropies will be listed as multiplied by the temperature to get
units of energy

Electronic entropy                ...      0.00000000 Eh      0.00 kcal/mol
Vibrational entropy               ...      0.00210279 Eh      1.32 kcal/mol
Rotational entropy                ...      0.01022726 Eh      6.42 kcal/mol
Translational entropy             ...      0.01780232 Eh     11.17 kcal/mol
-----------------------------------------------------------------------
Final entropy term                ...      0.03013237 Eh     18.91 kcal/mol

In case the symmetry of your molecule has not been determined correctly
or in case you have a reason to use a different symmetry number we print
out the resulting rotational entropy values for sn=1,12 :
 --------------------------------------------------------
|  sn= 1 | S(rot)=       0.01022726 Eh      6.42 kcal/mol|
|  sn= 2 | S(rot)=       0.00957280 Eh      6.01 kcal/mol|
|  sn= 3 | S(rot)=       0.00918997 Eh      5.77 kcal/mol|
|  sn= 4 | S(rot)=       0.00891835 Eh      5.60 kcal/mol|
|  sn= 5 | S(rot)=       0.00870766 Eh      5.46 kcal/mol|
|  sn= 6 | S(rot)=       0.00853552 Eh      5.36 kcal/mol|
|  sn= 7 | S(rot)=       0.00838997 Eh      5.26 kcal/mol|
|  sn= 8 | S(rot)=       0.00826389 Eh      5.19 kcal/mol|
|  sn= 9 | S(rot)=       0.00815268 Eh      5.12 kcal/mol|
|  sn=10 | S(rot)=       0.00805320 Eh      5.05 kcal/mol|
|  sn=11 | S(rot)=       0.00796321 Eh      5.00 kcal/mol|
|  sn=12 | S(rot)=       0.00788106 Eh      4.95 kcal/mol|
 --------------------------------------------------------

-------------------
GIBBS FREE ENERGY
-------------------

The Gibbs free energy is G = H - T*S

Total enthalpy                    ...   -205.35939754 Eh
Total entropy correction          ...     -0.03013237 Eh    -18.91 kcal/mol
-----------------------------------------------------------------------
Final Gibbs free energy         ...   -205.38952991 Eh

For completeness - the Gibbs free energy minus the electronic energy
G-E(el)                           ...     -0.00823439 Eh     -5.17 kcal/mol

                             ****ORCA TERMINATED NORMALLY****
TOTAL RUN TIME: 0 days 2 hours 16 minutes 12 seconds 268 msec
